LAMMPS (26 Feb 2014-ICMS)
WARNING: OMP_NUM_THREADS environment is not set. (../comm.cpp:100)
  using 1 OpenMP thread(s) per MPI task
# 3d Lennard-Jones melt

units		lj
atom_style	atomic

lattice		fcc 0.8442
Lattice spacing in x,y,z = 1.6796 1.6796 1.6796
region		box block 0 10 0 10 0 10
create_box	1 box
Created orthogonal box = (0 0 0) to (16.796 16.796 16.796)
  1 by 2 by 2 MPI processor grid
create_atoms	1 box
Created 4000 atoms
mass		1 1.0

velocity	all create 3.0 87287

pair_style	lj/cut 2.5
pair_coeff	1 1 1.0 1.0 2.5

neighbor	0.3 bin
neigh_modify	every 20 delay 0 check no

fix             0 all temp/berendsen 1.5 1.5 5.0
fix		1 all nve

#dump		id all atom 50 dump.melt

#dump		2 all image 25 image.*.jpg type type #		axes yes 0.8 0.02 view 60 -30
#dump_modify	2 pad 3

#dump		3 all movie 25 movie.mpg type type #		axes yes 0.8 0.02 view 60 -30
#dump_modify	3 pad 3

thermo_style    custom step temp etotal pe ke f_0
thermo	100
run		20000
Memory usage per processor = 1.88303 Mbytes
Step Temp TotEng PotEng KinEng 0 
       0            3   -2.2744931   -6.7733681     4.498875            0 
     100    1.6345071   -2.3192799   -4.7704275    2.4511477  0.038041298 
     200    1.6140754   -2.3391004   -4.7596081    2.4205078  0.057703566 
     300    1.5918466   -2.3553117   -4.7424847     2.387173  0.073839271 
     400    1.6000362   -2.3716981   -4.7711524    2.3994543  0.089775684 
     500    1.5909315   -2.3882139   -4.7740146    2.3858007   0.10520819 
     600    1.5906844   -2.4023454   -4.7877756    2.3854302   0.11888031 
     700    1.6069314   -2.4165397   -4.8263342    2.4097944   0.13256907 
     800    1.5814383    -2.429546   -4.8011104    2.3715644   0.14448775 
     900    1.5630976   -2.4410141   -4.7850744    2.3440603   0.15626397 
    1000    1.5737404    -2.453571   -4.8135914    2.3600204   0.16706403 
    1100    1.5653212   -2.4617147   -4.8091096    2.3473949   0.17591751 
    1200    1.5352989   -2.4723393    -4.774712    2.3023727   0.18476325 
    1300     1.564772   -2.4808333   -4.8274045    2.3465712   0.19318804 
    1400    1.5401986    -2.489726   -4.7994463    2.3097203   0.20151387 
    1500    1.5535872    -2.498526   -4.8283243    2.3297982   0.21019619 
    1600    1.5542355   -2.5071764   -4.8379467    2.3307703   0.21759057 
    1700    1.5493005    -2.515094   -4.8384638    2.3233698   0.22591665 
    1800    1.5368529   -2.5215061   -4.8262091     2.304703   0.23167629 
    1900    1.5440348   -2.5285631   -4.8440363    2.3154732   0.23826499 
    2000    1.5230669   -2.5360914   -4.8201206    2.2840292   0.24455429 
    2100    1.5316171   -2.5424885   -4.8393398    2.2968512   0.25024224 
    2200     1.518468   -2.5476155   -4.8247481    2.2771326   0.25531855 
    2300    1.5010857   -2.5520562   -4.8031218    2.2510656   0.25964684 
    2400    1.5332231   -2.5570693    -4.856329    2.2992597    0.2637986 
    2500    1.5103627   -2.5607911   -4.8257688    2.2649777   0.26707587 
    2600    1.5127919   -2.5646812   -4.8333018    2.2686206   0.27079372 
    2700    1.5314755   -2.5694328   -4.8660718     2.296639   0.27405677 
    2800    1.5202508   -2.5730513   -4.8528574    2.2798061   0.27809632 
    2900    1.5099065   -2.5767069   -4.8410005    2.2642935   0.28040849 
    3000    1.5076468   -2.5798011   -4.8407059    2.2609048   0.28326965 
    3100    1.4958235   -2.5819385   -4.8251129    2.2431744   0.28513561 
    3200    1.5196052   -2.5847221   -4.8635601     2.278838   0.28740465 
    3300    1.5036501   -2.5866668   -4.8415781    2.2549113   0.28910138 
    3400    1.5349328   -2.5894659   -4.8912895    2.3018236   0.29133441 
    3500    1.5123035   -2.5927261   -4.8606142    2.2678881   0.29404551 
    3600    1.5064948   -2.5944012   -4.8535785    2.2591773   0.29502067 
    3700    1.5053315   -2.5963375   -4.8537703    2.2574328   0.29664394 
    3800    1.5028505   -2.5983512   -4.8520634    2.2537122   0.29806513 
    3900    1.5108387   -2.6005538   -4.8662453    2.2656915   0.29963588 
    4000    1.4911501   -2.6014592   -4.8376252     2.236166   0.30074312 
    4100    1.4869185   -2.6021738    -4.831994    2.2298202   0.30120394 
    4200    1.5144068   -2.6038954   -4.8749377    2.2710423   0.30203131 
    4300    1.5215546   -2.6056111   -4.8873725    2.2817614   0.30248571 
    4400    1.4977558   -2.6059886   -4.8520607     2.246072   0.30279199 
    4500    1.4960139   -2.6074327   -4.8508925    2.2434598   0.30394664 
    4600      1.50206   -2.6085437   -4.8610704    2.2525268    0.3042851 
    4700    1.4977499   -2.6081055   -4.8541687    2.2460631   0.30416919 
    4800    1.5051617   -2.6077804   -4.8649585    2.2571781   0.30435699 
    4900    1.5298729    -2.610256   -4.9044917    2.2942356   0.30429571 
    5000    1.4857856   -2.6101554   -4.8382767    2.2281212   0.30471089 
    5100    1.5279026   -2.6113426   -4.9026236     2.291281   0.30465417 
    5200    1.5027705   -2.6116047   -4.8651969    2.2535922   0.30536561 
    5300    1.4929881   -2.6121638    -4.851086    2.2389223   0.30543656 
    5400    1.4910086   -2.6136946   -4.8496484    2.2359538   0.30586484 
    5500    1.5066954   -2.6139851   -4.8734631    2.2594781   0.30580165 
    5600    1.5042013   -2.6145734   -4.8703113    2.2557379   0.30608504 
    5700    1.4788757   -2.6162118   -4.8339707    2.2177589   0.30707825 
    5800    1.4931219   -2.6158301   -4.8549531     2.239123   0.30680769 
    5900    1.5102983   -2.6168346   -4.8817157    2.2648811   0.30643672 
    6000    1.5053872   -2.6174443   -4.8749606    2.2575163   0.30642719 
    6100    1.5054173   -2.6182766    -4.875838    2.2575614   0.30696523 
    6200    1.4835677   -2.6183518    -4.843147    2.2247952   0.30622523 
    6300    1.5160465   -2.6177502   -4.8912514    2.2735012   0.30616069 
    6400    1.5021533   -2.6183299   -4.8709966    2.2526667   0.30585526 
    6500    1.4916833   -2.6179539   -4.8549194    2.2369655   0.30529463 
    6600    1.5053265   -2.6191673   -4.8765925    2.2574253   0.30536189 
    6700    1.5108162   -2.6173594   -4.8830171    2.2656577   0.30403234 
    6800    1.5089015   -2.6194568   -4.8822432    2.2627864   0.30512441 
    6900     1.497043   -2.6202692   -4.8652723     2.245003   0.30448687 
    7000    1.4851878   -2.6191002    -4.846325    2.2272248   0.30384047 
    7100    1.4954226   -2.6192969     -4.86187    2.2425731   0.30336541 
    7200    1.5110539   -2.6205103   -4.8865245    2.2660143   0.30375191 
    7300    1.4840837   -2.6202882   -4.8458572    2.2255689   0.30397621 
    7400    1.4956098   -2.6193726   -4.8622264    2.2428538   0.30276048 
    7500    1.5032685   -2.6215682   -4.8759072     2.254339   0.30342218 
    7600    1.5044669   -2.6207692   -4.8769054    2.2561362   0.30324787 
    7700    1.4766744   -2.6214792    -4.835937    2.2144578   0.30293434 
    7800    1.5053513   -2.6209972   -4.8784597    2.2574625   0.30214395 
    7900    1.4796986   -2.6213704   -4.8403635    2.2189931   0.30267852 
    8000    1.5109141   -2.6226075    -4.888412    2.2658045   0.30297048 
    8100    1.5067142   -2.6227798   -4.8822861    2.2595062   0.30295261 
    8200    1.4967417   -2.6232728    -4.867824    2.2445513   0.30268163 
    8300     1.497494   -2.6238694   -4.8695489    2.2456795   0.30247594 
    8400    1.4897769   -2.6232187   -4.8573254    2.2341068   0.30132524 
    8500    1.4978399    -2.622756   -4.8689541    2.2461981   0.30068537 
    8600    1.5263979   -2.6240943   -4.9131187    2.2890244   0.30065033 
    8700    1.4979259    -2.623439   -4.8697661    2.2463271   0.30024478 
    8800     1.506102   -2.6235499   -4.8821381    2.2585881   0.30032574 
    8900    1.4907937   -2.6232181   -4.8588497    2.2356316    0.2995649 
    9000    1.4876465   -2.6251724   -4.8560844    2.2309119   0.30027585 
    9100    1.4810243   -2.6238659    -4.844847    2.2209811   0.29937469 
    9200    1.4916299    -2.624717   -4.8616025    2.2368856    0.2988481 
    9300    1.5195102   -2.6248323   -4.9035278    2.2786955   0.29853423 
    9400    1.5110952   -2.6245383   -4.8906145    2.2660761   0.29820569 
    9500    1.4963714   -2.6248462   -4.8688421    2.2439959   0.29761219 
    9600    1.4940128   -2.6243767   -4.8648356     2.240459   0.29673984 
    9700    1.4866817   -2.6246794   -4.8541443     2.229465   0.29701635 
    9800    1.4836867   -2.6259181   -4.8508918    2.2249737   0.29683455 
    9900    1.5099426   -2.6252049   -4.8895525    2.2643476    0.2964562 
   10000    1.4898624   -2.6257262    -4.859961    2.2342348   0.29641519 
   10100    1.4935903   -2.6250847   -4.8649101    2.2398254   0.29547259 
   10200    1.5030889   -2.6248842    -4.878954    2.2540698   0.29482533 
   10300    1.4876063   -2.6248547   -4.8557064    2.2308516   0.29423836 
   10400    1.4983341   -2.6242613   -4.8712006    2.2469393   0.29330957 
   10500     1.481314   -2.6249842   -4.8463997    2.2214155   0.29306603 
   10600    1.5083082   -2.6260165   -4.8879132    2.2618966   0.29371522 
   10700     1.503522   -2.6264235   -4.8811427    2.2547192   0.29397449 
   10800    1.4827969    -2.626637   -4.8502763    2.2236393   0.29373638 
   10900    1.4981863   -2.6259055   -4.8726232    2.2467177   0.29309451 
   11000    1.4945047   -2.6261593   -4.8673559    2.2411966   0.29204762 
   11100    1.5128006   -2.6265123   -4.8951459    2.2686337   0.29163892 
   11200    1.4958841   -2.6264154   -4.8696806    2.2432652   0.29095861 
   11300    1.5009437   -2.6254014   -4.8762541    2.2508527   0.29022789 
   11400    1.4923629   -2.6260035   -4.8639883    2.2379848   0.28945876 
   11500    1.4916336   -2.6249559    -4.861847    2.2368911   0.28914243 
   11600    1.5091089   -2.6261205    -4.889218    2.2630974   0.28850266 
   11700    1.4857238   -2.6256705   -4.8536991    2.2280286   0.28889214 
   11800    1.4893002    -2.625951   -4.8593428    2.2333918   0.28802819 
   11900    1.4918387   -2.6251131   -4.8623116    2.2371985   0.28737323 
   12000    1.5015489   -2.6251532   -4.8769134    2.2517602   0.28688554 
   12100    1.4806045    -2.626177   -4.8465286    2.2203516   0.28667796 
   12200     1.510516   -2.6272116   -4.8924191    2.2652075   0.28751164 
   12300    1.5017861   -2.6268218   -4.8789378     2.252116    0.2864243 
   12400    1.4727173   -2.6265005   -4.8350242    2.2085237   0.28610754 
   12500    1.4933106    -2.626361   -4.8657669    2.2394059   0.28572978 
   12600     1.510409   -2.6268017   -4.8918488    2.2650471   0.28473819 
   12700    1.4974528   -2.6259275   -4.8715452    2.2456177   0.28443025 
   12800    1.5072683   -2.6280221   -4.8883593    2.2603373   0.28502786 
   12900    1.4980673   -2.6276741   -4.8742132    2.2465391   0.28504578 
   13000    1.4909169   -2.6286366   -4.8644529    2.2358162   0.28500806 
   13100     1.503979   -2.6284703   -4.8838748    2.2554045   0.28453835 
   13200    1.4937877   -2.6285231   -4.8686444    2.2401213   0.28441117 
   13300    1.4717398   -2.6283702    -4.835428    2.2070578   0.28374261 
   13400    1.4918658   -2.6280295   -4.8652688    2.2372393   0.28315364 
   13500     1.530316   -2.6298293   -4.9247294    2.2949001   0.28338817 
   13600    1.5048538   -2.6296862   -4.8864026    2.2567164   0.28358819 
   13700    1.5011212   -2.6301743   -4.8812932    2.2511189    0.2836444 
   13800     1.498592   -2.6305799    -4.877906    2.2473261   0.28365108 
   13900    1.4986267   -2.6303385   -4.8777166    2.2473781   0.28290608 
   14000    1.4992887   -2.6302903   -4.8786611    2.2483708   0.28205482 
   14100    1.4899062   -2.6296214   -4.8639219    2.2343005   0.28099393 
   14200    1.4980805   -2.6280706   -4.8746296     2.246559   0.27922174 
   14300    1.4864895   -2.6281329   -4.8573098    2.2291768   0.27857527 
   14400     1.521255   -2.6287445   -4.9100566    2.2813121    0.2784064 
   14500    1.4869616   -2.6279611   -4.8578459    2.2298848    0.2775235 
   14600    1.4701513   -2.6261838   -4.8308595    2.2046757   0.27588766 
   14700    1.4998158   -2.6265256   -4.8756869    2.2491612   0.27509445 
   14800    1.5032318    -2.626691   -4.8809751     2.254284   0.27464902 
   14900    1.5263052   -2.6267358   -4.9156213    2.2888855   0.27467792 
   15000    1.5009703   -2.6260299   -4.8769225    2.2508926   0.27340867 
   15100     1.492913   -2.6255325   -4.8643421    2.2388096   0.27281863 
   15200    1.5161622   -2.6267435   -4.9004183    2.2736748   0.27315484 
   15300    1.5029896   -2.6273975   -4.8813183    2.2539208   0.27299526 
   15400    1.4927082   -2.6272233   -4.8657259    2.2385026   0.27235588 
   15500     1.502023    -2.627586   -4.8800572    2.2524712   0.27239876 
   15600    1.4955442    -2.627846   -4.8706015    2.2427555    0.2715478 
   15700     1.502805   -2.6275023   -4.8811462    2.2536439   0.27115216 
   15800     1.529406   -2.6297082   -4.9232437    2.2935355   0.27224748 
   15900     1.497998   -2.6285088   -4.8749441    2.2464353    0.2718957 
   16000    1.5133105    -2.629091   -4.8984893    2.2693983    0.2721906 
   16100     1.496696    -2.629129   -4.8736117    2.2444827   0.27161544 
   16200    1.4859441   -2.6291697   -4.8575286    2.2283589   0.27011652 
   16300    1.5042946   -2.6291545   -4.8850323    2.2558778   0.26957795 
   16400    1.4861939    -2.628843   -4.8575766    2.2287336   0.26918258 
   16500    1.5032452   -2.6292449    -4.883549    2.2543041   0.26920491 
   16600    1.4989659   -2.6290261   -4.8769128    2.2478868   0.26856616 
   16700    1.4799346   -2.6288817   -4.8482285    2.2193469   0.26846855 
   16800     1.501982   -2.6280909   -4.8805007    2.2524098     0.267012 
   16900    1.5069243   -2.6276684   -4.8874898    2.2598214   0.26564131 
   17000    1.5126772   -2.6278139   -4.8962623    2.2684485   0.26571967 
   17100    1.4747909   -2.6284528    -4.840086    2.2116333   0.26542607 
   17200    1.5008942   -2.6279412   -4.8787196    2.2507784   0.26510276 
   17300    1.4986114   -2.6282739    -4.875629    2.2473551   0.26537181 
   17400    1.4907616    -2.629388   -4.8649713    2.2355833   0.26521631 
   17500    1.4901775   -2.6286525     -4.86336    2.2347075   0.26414036 
   17600    1.4837294     -2.62763   -4.8526677    2.2250378   0.26308722 
   17700    1.4833561    -2.627639   -4.8521168    2.2244779   0.26189218 
   17800    1.4959494   -2.6269345   -4.8702977    2.2433632   0.26186034 
   17900     1.491687   -2.6277592   -4.8647303    2.2369711   0.26105896 
   18000    1.5031556   -2.6265416   -4.8807114    2.2541698   0.25999395 
   18100    1.4919195   -2.6264446   -4.8637643    2.2373198    0.2591678 
   18200    1.5078607   -2.6273257   -4.8885513    2.2612256   0.25955348 
   18300    1.4964178   -2.6281045   -4.8721701    2.2440656   0.25936877 
   18400    1.5019775   -2.6275146   -4.8799176     2.252403   0.25815154 
   18500    1.4960594   -2.6277299   -4.8712579     2.243528   0.25880535 
   18600    1.5018118    -2.629283   -4.8814375    2.2521545   0.25959904 
   18700    1.4978094   -2.6302268   -4.8763792    2.2461524   0.25983578 
   18800    1.4982814   -2.6290357    -4.875896    2.2468603   0.25844154 
   18900    1.4916748   -2.6286404   -4.8655932    2.2369528   0.25751894 
   19000     1.517954   -2.6286362    -4.904998    2.2763618   0.25724602 
   19100    1.4910797   -2.6280949   -4.8641552    2.2360604   0.25580594 
   19200    1.4736706   -2.6279928   -4.8379461    2.2099533   0.25547638 
   19300    1.4968562   -2.6272089   -4.8719318    2.2447229   0.25523759 
   19400    1.5154042   -2.6278084   -4.9003465    2.2725381   0.25495883 
   19500    1.4843223   -2.6273379   -4.8532647    2.2259268   0.25364327 
   19600    1.4949851   -2.6267233   -4.8686404    2.2419171   0.25279929 
   19700    1.4938898   -2.6265773   -4.8668518    2.2402745   0.25198249 
   19800    1.5047383   -2.6273585   -4.8839016    2.2565431   0.25195351 
   19900    1.5055992   -2.6268307    -4.884665    2.2578343   0.25121496 
   20000    1.5059474   -2.6277199   -4.8860763    2.2583563   0.25126765 

Loop time of 27.2478 on 4 procs for 20000 steps with 4000 atoms
97.6% CPU use with 4 MPI tasks x 1 OpenMP threads

MPI task timings breakdown:
Section |  min time  |  avg time  |  max time  |%varavg| %total
---------------------------------------------------------------
Pair    | 20.862     | 21.18      | 21.407     |   4.3 | 77.73
Neigh   | 2.7999     | 2.827      | 2.8537     |   1.4 | 10.38
Comm    | 2.2461     | 2.4955     | 2.7881     |  12.2 |  9.16
Output  | 0.0046875  | 0.0047382  | 0.0048537  |   0.1 |  0.02
Modify  | 0.56927    | 0.57266    | 0.57637    |   0.3 |  2.10
Other   |            | 0.168      |            |       |  0.62

Nlocal:    1000 ave 1023 max 988 min
Histogram: 2 0 0 1 0 0 0 0 0 1
Nghost:    2702.75 ave 2730 max 2681 min
Histogram: 1 0 1 0 0 1 0 0 0 1
Neighs:    37767 ave 39171 max 36421 min
Histogram: 1 0 0 1 0 0 1 0 0 1

Total # of neighbors = 151068
Ave neighs/atom = 37.767
Neighbor list builds = 1000
Dangerous builds = 0
